# LAMMPS data file written by OVITO Basic 3.10.2

1 atoms
1 atom types

0.0 2.56062 xlo xhi
0.0 2.2175619694 ylo yhi
0.0 2.0907374751 zlo zhi
1.28031 1.28031 0.7391873231 xy xz yz

Masses

1 63.546  # Cu

Atoms  # atomic

1 1 0.0 0.0 0.0
